 Entering Gaussian System, Link 0=g09
 Input=hco+.com
 Output=hco+.log
 Initial command:
 /home/andres/codes/g09/l1.exe "/home/andres/scr/Gau-16305.inp" -scrdir="/home/andres/scr/"
 Entering Link 1 = /home/andres/codes/g09/l1.exe PID=     16307.
  
 Copyright (c) 1988,1990,1992,1993,1995,1998,2003,2009,2013,
            Gaussian, Inc.  All Rights Reserved.
  
 This is part of the Gaussian(R) 09 program.  It is based on
 the Gaussian(R) 03 system (copyright 2003, Gaussian, Inc.),
 the Gaussian(R) 98 system (copyright 1998, Gaussian, Inc.),
 the Gaussian(R) 94 system (copyright 1995, Gaussian, Inc.),
 the Gaussian 92(TM) system (copyright 1992, Gaussian, Inc.),
 the Gaussian 90(TM) system (copyright 1990, Gaussian, Inc.),
 the Gaussian 88(TM) system (copyright 1988, Gaussian, Inc.),
 the Gaussian 86(TM) system (copyright 1986, Carnegie Mellon
 University), and the Gaussian 82(TM) system (copyright 1983,
 Carnegie Mellon University). Gaussian is a federally registered
 trademark of Gaussian, Inc.
  
 This software contains proprietary and confidential information,
 including trade secrets, belonging to Gaussian, Inc.
  
 This software is provided under written license and may be
 used, copied, transmitted, or stored only in accord with that
 written license.
  
 The following legend is applicable only to US Government
 contracts under FAR:
  
                    RESTRICTED RIGHTS LEGEND
  
 Use, reproduction and disclosure by the US Government is
 subject to restrictions as set forth in subparagraphs (a)
 and (c) of the Commercial Computer Software - Restricted
 Rights clause in FAR 52.227-19.
  
 Gaussian, Inc.
 340 Quinnipiac St., Bldg. 40, Wallingford CT 06492
  
  
 ---------------------------------------------------------------
 Warning -- This program may not be used in any manner that
 competes with the business of Gaussian, Inc. or will provide
 assistance to any competitor of Gaussian, Inc.  The licensee
 of this program is prohibited from giving any competitor of
 Gaussian, Inc. access to this program.  By using this program,
 the user acknowledges that Gaussian, Inc. is engaged in the
 business of creating and licensing software in the field of
 computational chemistry and represents and warrants to the
 licensee that it is not a competitor of Gaussian, Inc. and that
 it will not use this program in any manner prohibited above.
 ---------------------------------------------------------------
  

 Cite this work as:
 Gaussian 09, Revision D.01,
 M. J. Frisch, G. W. Trucks, H. B. Schlegel, G. E. Scuseria, 
 M. A. Robb, J. R. Cheeseman, G. Scalmani, V. Barone, B. Mennucci, 
 G. A. Petersson, H. Nakatsuji, M. Caricato, X. Li, H. P. Hratchian, 
 A. F. Izmaylov, J. Bloino, G. Zheng, J. L. Sonnenberg, M. Hada, 
 M. Ehara, K. Toyota, R. Fukuda, J. Hasegawa, M. Ishida, T. Nakajima, 
 Y. Honda, O. Kitao, H. Nakai, T. Vreven, J. A. Montgomery, Jr., 
 J. E. Peralta, F. Ogliaro, M. Bearpark, J. J. Heyd, E. Brothers, 
 K. N. Kudin, V. N. Staroverov, T. Keith, R. Kobayashi, J. Normand, 
 K. Raghavachari, A. Rendell, J. C. Burant, S. S. Iyengar, J. Tomasi, 
 M. Cossi, N. Rega, J. M. Millam, M. Klene, J. E. Knox, J. B. Cross, 
 V. Bakken, C. Adamo, J. Jaramillo, R. Gomperts, R. E. Stratmann, 
 O. Yazyev, A. J. Austin, R. Cammi, C. Pomelli, J. W. Ochterski, 
 R. L. Martin, K. Morokuma, V. G. Zakrzewski, G. A. Voth, 
 P. Salvador, J. J. Dannenberg, S. Dapprich, A. D. Daniels, 
 O. Farkas, J. B. Foresman, J. V. Ortiz, J. Cioslowski, 
 and D. J. Fox, Gaussian, Inc., Wallingford CT, 2013.
 
 ******************************************
 Gaussian 09:  EM64L-G09RevD.01 24-Apr-2013
                22-Apr-2021 
 ******************************************
 ----------------
 # hf/cc-pVDZ opt
 ----------------
 1/18=20,19=15,38=1/1,3;
 2/9=110,12=2,17=6,18=5,40=1/2;
 3/5=16,11=9,16=1,25=1,30=1,71=1/1,2,3;
 4//1;
 5/5=2,38=5/2;
 6/7=2,8=2,9=2,10=2,28=1/1;
 7//1,2,3,16;
 1/18=20,19=15/3(2);
 2/9=110/2;
 99//99;
 2/9=110/2;
 3/5=16,11=9,16=1,25=1,30=1,71=1/1,2,3;
 4/5=5,16=3,69=1/1;
 5/5=2,38=5/2;
 7//1,2,3,16;
 1/18=20,19=15/3(-5);
 2/9=110/2;
 6/7=2,8=2,9=2,10=2,19=2,28=1/1;
 99/9=1/99;
 --------
 opt hco+
 --------
 Symbolic Z-matrix:
 Charge =  1 Multiplicity = 1
 H
 C                    1     1.1 
 X                    2     1.       1     90. 
 O                    2     1.1      3     90.      1     180.     0
 

 GradGradGradGradGradGradGradGradGradGradGradGradGradGradGradGradGradGrad
 Berny optimization.
 Initialization pass.
                           ----------------------------
                           !    Initial Parameters    !
                           ! (Angstroms and Degrees)  !
 --------------------------                            --------------------------
 ! Name  Definition              Value          Derivative Info.                !
 --------------------------------------------------------------------------------
 ! R1    R(1,2)                  1.1            estimate D2E/DX2                !
 ! R2    R(2,3)                  1.1            estimate D2E/DX2                !
 ! A1    L(1,2,3,-1,-1)        180.0            estimate D2E/DX2                !
 ! A2    L(1,2,3,-2,-2)        180.0            estimate D2E/DX2                !
 --------------------------------------------------------------------------------
 Trust Radius=3.00D-01 FncErr=1.00D-07 GrdErr=1.00D-07
 Number of steps in this run=     20 maximum allowed number of steps=    100.
 GradGradGradGradGradGradGradGradGradGradGradGradGradGradGradGradGradGrad

                          Input orientation:                          
 ---------------------------------------------------------------------
 Center     Atomic      Atomic             Coordinates (Angstroms)
 Number     Number       Type             X           Y           Z
 ---------------------------------------------------------------------
      1          1           0        0.000000    0.000000    0.000000
      2          6           0        0.000000    0.000000    1.100000
      3          8           0        0.000000    0.000000    2.200000
 ---------------------------------------------------------------------
                    Distance matrix (angstroms):
                    1          2          3
     1  H    0.000000
     2  C    1.100000   0.000000
     3  O    2.200000   1.100000   0.000000
 Stoichiometry    CHO(1+)
 Framework group  C*V[C*(HCO)]
 Deg. of freedom     2
 Full point group                 C*V     NOp   4
 Largest Abelian subgroup         C2V     NOp   4
 Largest concise Abelian subgroup C1      NOp   1
                         Standard orientation:                         
 ---------------------------------------------------------------------
 Center     Atomic      Atomic             Coordinates (Angstroms)
 Number     Number       Type             X           Y           Z
 ---------------------------------------------------------------------
      1          1           0        0.000000    0.000000   -1.613333
      2          6           0        0.000000    0.000000   -0.513333
      3          8           0        0.000000    0.000000    0.586667
 ---------------------------------------------------------------------
 Rotational constants (GHZ):      0.0000000     45.1133674     45.1133674
 Standard basis: CC-pVDZ (5D, 7F)
 There are    19 symmetry adapted cartesian basis functions of A1  symmetry.
 There are     2 symmetry adapted cartesian basis functions of A2  symmetry.
 There are     7 symmetry adapted cartesian basis functions of B1  symmetry.
 There are     7 symmetry adapted cartesian basis functions of B2  symmetry.
 There are    17 symmetry adapted basis functions of A1  symmetry.
 There are     2 symmetry adapted basis functions of A2  symmetry.
 There are     7 symmetry adapted basis functions of B1  symmetry.
 There are     7 symmetry adapted basis functions of B2  symmetry.
    33 basis functions,    73 primitive gaussians,    35 cartesian basis functions
     7 alpha electrons        7 beta electrons
       nuclear repulsion energy        27.9020709984 Hartrees.
 NAtoms=    3 NActive=    3 NUniq=    3 SFac= 1.00D+00 NAtFMM=   60 NAOKFM=F Big=F
 Integral buffers will be    131072 words long.
 Raffenetti 1 integral format.
 Two-electron integral symmetry is turned on.
 One-electron integrals computed using PRISM.
 NBasis=    33 RedAO= T EigKep=  3.63D-02  NBF=    17     2     7     7
 NBsUse=    33 1.00D-06 EigRej= -1.00D+00 NBFU=    17     2     7     7
 ExpMin= 1.22D-01 ExpMax= 1.17D+04 ExpMxC= 4.01D+02 IAcc=1 IRadAn=         1 AccDes= 0.00D+00
 Harris functional with IExCor=  205 and IRadAn=       1 diagonalized for initial guess.
 HarFok:  IExCor=  205 AccDes= 0.00D+00 IRadAn=         1 IDoV= 1 UseB2=F ITyADJ=14
 ICtDFT=  3500011 ScaDFX=  1.000000  1.000000  1.000000  1.000000
 FoFCou: FMM=F IPFlag=           0 FMFlag=      100000 FMFlg1=           0
         NFxFlg=           0 DoJE=T BraDBF=F KetDBF=T FulRan=T
         wScrn=  0.000000 ICntrl=     500 IOpCl=  0 I1Cent=   200000004 NGrid=           0
         NMat0=    1 NMatS0=      1 NMatT0=    0 NMatD0=    1 NMtDS0=    0 NMtDT0=    0
 Petite list used in FoFCou.
 Initial guess orbital symmetries:
       Occupied  (SG) (SG) (SG) (SG) (SG) (PI) (PI)
       Virtual   (PI) (PI) (SG) (SG) (PI) (PI) (SG) (SG) (SG) (PI)
                 (PI) (SG) (PI) (PI) (DLTA) (DLTA) (SG) (PI) (PI)
                 (SG) (DLTA) (DLTA) (SG) (PI) (PI) (SG)
 The electronic state of the initial guess is 1-SG.
 Keep R1 ints in memory in symmetry-blocked form, NReq=1021708.
 Requested convergence on RMS density matrix=1.00D-08 within 128 cycles.
 Requested convergence on MAX density matrix=1.00D-06.
 Requested convergence on             energy=1.00D-06.
 No special actions if energy rises.
 SCF Done:  E(RHF) =  -112.978939348     A.U. after   10 cycles
            NFock= 10  Conv=0.18D-08     -V/T= 2.0021

 **********************************************************************

            Population analysis using the SCF density.

 **********************************************************************

 Orbital symmetries:
       Occupied  (SG) (SG) (SG) (SG) (SG) (PI) (PI)
       Virtual   (PI) (PI) (SG) (SG) (PI) (PI) (SG) (SG) (SG) (PI)
                 (PI) (SG) (DLTA) (DLTA) (PI) (PI) (SG) (PI) (PI)
                 (SG) (DLTA) (DLTA) (SG) (PI) (PI) (SG)
 The electronic state is 1-SG.
 Alpha  occ. eigenvalues --  -21.04314 -11.77487  -1.89097  -1.19862  -1.09180
 Alpha  occ. eigenvalues --   -0.98480  -0.98480
 Alpha virt. eigenvalues --   -0.18898  -0.18898  -0.09964   0.04554   0.32755
 Alpha virt. eigenvalues --    0.32755   0.40422   0.58257   0.73939   0.91031
 Alpha virt. eigenvalues --    0.91031   0.92862   0.96759   0.96759   0.98459
 Alpha virt. eigenvalues --    0.98459   1.68928   1.69236   1.69236   2.01512
 Alpha virt. eigenvalues --    2.61011   2.61011   3.03757   3.23538   3.23538
 Alpha virt. eigenvalues --    3.58556
          Condensed to atoms (all electrons):
               1          2          3
     1  H    0.326869   0.358689  -0.009613
     2  C    0.358689   4.278672   0.838734
     3  O   -0.009613   0.838734   7.018838
 Mulliken charges:
               1
     1  H    0.324055
     2  C    0.523905
     3  O    0.152040
 Sum of Mulliken charges =   1.00000
 Mulliken charges with hydrogens summed into heavy atoms:
               1
     2  C    0.847960
     3  O    0.152040
 Electronic spatial extent (au):  <R**2>=             40.4773
 Charge=              1.0000 electrons
 Dipole moment (field-independent basis, Debye):
    X=              0.0000    Y=              0.0000    Z=             -4.2236  Tot=              4.2236
 Quadrupole moment (field-independent basis, Debye-Ang):
   XX=             -8.8196   YY=             -8.8196   ZZ=             -3.4827
   XY=              0.0000   XZ=              0.0000   YZ=              0.0000
 Traceless Quadrupole moment (field-independent basis, Debye-Ang):
   XX=             -1.7790   YY=             -1.7790   ZZ=              3.5579
   XY=              0.0000   XZ=              0.0000   YZ=              0.0000
 Octapole moment (field-independent basis, Debye-Ang**2):
  XXX=              0.0000  YYY=              0.0000  ZZZ=             -8.4604  XYY=              0.0000
  XXY=              0.0000  XXZ=             -0.1432  XZZ=              0.0000  YZZ=              0.0000
  YYZ=             -0.1432  XYZ=              0.0000
 Hexadecapole moment (field-independent basis, Debye-Ang**3):
 XXXX=             -6.2552 YYYY=             -6.2552 ZZZZ=            -13.5269 XXXY=              0.0000
 XXXZ=              0.0000 YYYX=              0.0000 YYYZ=              0.0000 ZZZX=              0.0000
 ZZZY=              0.0000 XXYY=             -2.0851 XXZZ=             -5.7543 YYZZ=             -5.7543
 XXYZ=              0.0000 YYXZ=              0.0000 ZZXY=              0.0000
 N-N= 2.790207099838D+01 E-N=-3.165663707511D+02  KE= 1.127423656097D+02
 Symmetry A1   KE= 1.046423751471D+02
 Symmetry A2   KE=-3.783561739932D-51
 Symmetry B1   KE= 4.049995231291D+00
 Symmetry B2   KE= 4.049995231291D+00
 Calling FoFJK, ICntrl=      2127 FMM=F ISym2X=1 I1Cent= 0 IOpClX= 0 NMat=1 NMatS=1 NMatT=0.
 ***** Axes restored to original set *****
 -------------------------------------------------------------------
 Center     Atomic                   Forces (Hartrees/Bohr)
 Number     Number              X              Y              Z
 -------------------------------------------------------------------
      1        1           0.000000000    0.000000000    0.003575218
      2        6           0.000000000    0.000000000    0.050891890
      3        8           0.000000000    0.000000000   -0.054467108
 -------------------------------------------------------------------
 Cartesian Forces:  Max     0.054467108 RMS     0.024876210

 GradGradGradGradGradGradGradGradGradGradGradGradGradGradGradGradGradGrad
 Berny optimization.
 FormGI is forming the generalized inverse of G from B-inverse, IUseBI=4.
 Internal  Forces:  Max     0.054467108 RMS     0.027292160
 Search for a local minimum.
 Step number   1 out of a maximum of   20
 All quantities printed in internal units (Hartrees-Bohrs-Radians)
 Mixed Optimization -- RFO/linear search
 Second derivative matrix not updated -- first step.
 The second derivative matrix:
                          R1        R2        A1        A2
           R1           0.33682
           R2           0.00000   1.76720
           A1           0.00000   0.00000   0.05660
           A2           0.00000   0.00000   0.00000   0.05660
 ITU=  0
     Eigenvalues ---    0.05660   0.05660   0.33682   1.76720
 RFO step:  Lambda=-1.71486910D-03 EMin= 5.66020519D-02
 Linear search not attempted -- first point.
 Iteration  1 RMS(Cart)=  0.01519220 RMS(Int)=  0.00000000
 Iteration  2 RMS(Cart)=  0.00000000 RMS(Int)=  0.00000001
 ClnCor:  largest displacement from symmetrization is 1.56D-16 for atom     1.
 Variable       Old X    -DE/DX   Delta X   Delta X   Delta X     New X
                                 (Linear)    (Quad)   (Total)
    R1        2.07870  -0.00358   0.00000  -0.01056  -0.01056   2.06814
    R2        2.07870  -0.05447   0.00000  -0.03079  -0.03079   2.04791
    A1        3.14159   0.00000   0.00000   0.00000   0.00000   3.14159
    A2        3.14159   0.00000   0.00000   0.00000   0.00000   3.14159
         Item               Value     Threshold  Converged?
 Maximum Force            0.054467     0.000450     NO 
 RMS     Force            0.027292     0.000300     NO 
 Maximum Displacement     0.024048     0.001800     NO 
 RMS     Displacement     0.015192     0.001200     NO 
 Predicted change in Energy=-8.583441D-04
 GradGradGradGradGradGradGradGradGradGradGradGradGradGradGradGradGradGrad

                          Input orientation:                          
 ---------------------------------------------------------------------
 Center     Atomic      Atomic             Coordinates (Angstroms)
 Number     Number       Type             X           Y           Z
 ---------------------------------------------------------------------
      1          1           0        0.000000    0.000000    0.009157
      2          6           0        0.000000    0.000000    1.103569
      3          8           0        0.000000    0.000000    2.187274
 ---------------------------------------------------------------------
                    Distance matrix (angstroms):
                    1          2          3
     1  H    0.000000
     2  C    1.094411   0.000000
     3  O    2.178117   1.083706   0.000000
 Stoichiometry    CHO(1+)
 Framework group  C*V[C*(HCO)]
 Deg. of freedom     2
 Full point group                 C*V     NOp   4
 Largest Abelian subgroup         C2V     NOp   4
 Largest concise Abelian subgroup C1      NOp   1
                         Standard orientation:                         
 ---------------------------------------------------------------------
 Center     Atomic      Atomic             Coordinates (Angstroms)
 Number     Number       Type             X           Y           Z
 ---------------------------------------------------------------------
      1          1           0        0.000000    0.000000   -1.599427
      2          6           0        0.000000    0.000000   -0.505016
      3          8           0        0.000000    0.000000    0.578690
 ---------------------------------------------------------------------
 Rotational constants (GHZ):      0.0000000     46.3285665     46.3285665
 Standard basis: CC-pVDZ (5D, 7F)
 There are    19 symmetry adapted cartesian basis functions of A1  symmetry.
 There are     2 symmetry adapted cartesian basis functions of A2  symmetry.
 There are     7 symmetry adapted cartesian basis functions of B1  symmetry.
 There are     7 symmetry adapted cartesian basis functions of B2  symmetry.
 There are    17 symmetry adapted basis functions of A1  symmetry.
 There are     2 symmetry adapted basis functions of A2  symmetry.
 There are     7 symmetry adapted basis functions of B1  symmetry.
 There are     7 symmetry adapted basis functions of B2  symmetry.
    33 basis functions,    73 primitive gaussians,    35 cartesian basis functions
     7 alpha electrons        7 beta electrons
       nuclear repulsion energy        28.2833330454 Hartrees.
 NAtoms=    3 NActive=    3 NUniq=    3 SFac= 1.00D+00 NAtFMM=   60 NAOKFM=F Big=F
 Integral buffers will be    131072 words long.
 Raffenetti 1 integral format.
 Two-electron integral symmetry is turned on.
 One-electron integrals computed using PRISM.
 NBasis=    33 RedAO= T EigKep=  3.58D-02  NBF=    17     2     7     7
 NBsUse=    33 1.00D-06 EigRej= -1.00D+00 NBFU=    17     2     7     7
 Initial guess from the checkpoint file:  "/home/andres/scr/Gau-16307.chk"
 B after Tr=     0.000000    0.000000    0.000000
         Rot=    1.000000    0.000000    0.000000    0.000000 Ang=   0.00 deg.
 Initial guess orbital symmetries:
       Occupied  (SG) (SG) (SG) (SG) (SG) (PI) (PI)
       Virtual   (SG) (SG) (SG) (SG) (SG) (DLTA) (SG) (DLTA) (SG)
                 (SG) (SG) (SG) (DLTA) (DLTA) (PI) (PI) (PI) (PI)
                 (PI) (PI) (PI) (PI) (PI) (PI) (PI) (PI)
 ExpMin= 1.22D-01 ExpMax= 1.17D+04 ExpMxC= 4.01D+02 IAcc=1 IRadAn=         1 AccDes= 0.00D+00
 Harris functional with IExCor=  205 and IRadAn=       1 diagonalized for initial guess.
 HarFok:  IExCor=  205 AccDes= 0.00D+00 IRadAn=         1 IDoV= 1 UseB2=F ITyADJ=14
 ICtDFT=  3500011 ScaDFX=  1.000000  1.000000  1.000000  1.000000
 FoFCou: FMM=F IPFlag=           0 FMFlag=      100000 FMFlg1=           0
         NFxFlg=           0 DoJE=T BraDBF=F KetDBF=T FulRan=T
         wScrn=  0.000000 ICntrl=     500 IOpCl=  0 I1Cent=   200000004 NGrid=           0
         NMat0=    1 NMatS0=      1 NMatT0=    0 NMatD0=    1 NMtDS0=    0 NMtDT0=    0
 Petite list used in FoFCou.
 Keep R1 ints in memory in symmetry-blocked form, NReq=1021736.
 Requested convergence on RMS density matrix=1.00D-08 within 128 cycles.
 Requested convergence on MAX density matrix=1.00D-06.
 Requested convergence on             energy=1.00D-06.
 No special actions if energy rises.
 SCF Done:  E(RHF) =  -112.979839528     A.U. after    8 cycles
            NFock=  8  Conv=0.78D-08     -V/T= 2.0011
 Calling FoFJK, ICntrl=      2127 FMM=F ISym2X=1 I1Cent= 0 IOpClX= 0 NMat=1 NMatS=1 NMatT=0.
 ***** Axes restored to original set *****
 -------------------------------------------------------------------
 Center     Atomic                   Forces (Hartrees/Bohr)
 Number     Number              X              Y              Z
 -------------------------------------------------------------------
      1        1           0.000000000    0.000000000    0.000238759
      2        6           0.000000000    0.000000000    0.001467469
      3        8           0.000000000    0.000000000   -0.001706228
 -------------------------------------------------------------------
 Cartesian Forces:  Max     0.001706228 RMS     0.000754371

 GradGradGradGradGradGradGradGradGradGradGradGradGradGradGradGradGradGrad
 Berny optimization.
 Using GEDIIS/GDIIS optimizer.
 Internal  Forces:  Max     0.001706228 RMS     0.000861426
 Search for a local minimum.
 Step number   2 out of a maximum of   20
 All quantities printed in internal units (Hartrees-Bohrs-Radians)
 Mixed Optimization -- En-DIIS/RFO-DIIS
 Update second derivatives using D2CorX and points    1    2
 DE= -9.00D-04 DEPred=-8.58D-04 R= 1.05D+00
 TightC=F SS=  1.41D+00  RLast= 3.26D-02 DXNew= 5.0454D-01 9.7656D-02
 Trust test= 1.05D+00 RLast= 3.26D-02 DXMaxT set to 3.00D-01
 The second derivative matrix:
                          R1        R2        A1        A2
           R1           0.33614
           R2          -0.00693   1.71588
           A1           0.00000   0.00000   0.05660
           A2           0.00000   0.00000   0.00000   0.05660
 ITU=  1  0
 Use linear search instead of GDIIS.
     Eigenvalues ---    0.05660   0.05660   0.33611   1.71591
 RFO step:  Lambda=-3.30533771D-08 EMin= 5.66020519D-02
 Quartic linear search produced a step of  0.03137.
 Iteration  1 RMS(Cart)=  0.00056482 RMS(Int)=  0.00000003
 Iteration  2 RMS(Cart)=  0.00000002 RMS(Int)=  0.00000002
 ClnCor:  largest displacement from symmetrization is 4.01D-08 for atom     2.
 Variable       Old X    -DE/DX   Delta X   Delta X   Delta X     New X
                                 (Linear)    (Quad)   (Total)
    R1        2.06814  -0.00024  -0.00033  -0.00031  -0.00064   2.06750
    R2        2.04791  -0.00171  -0.00097   0.00002  -0.00095   2.04696
    A1        3.14159   0.00000   0.00000   0.00000   0.00000   3.14159
    A2        3.14159   0.00000   0.00000   0.00000   0.00000   3.14159
         Item               Value     Threshold  Converged?
 Maximum Force            0.001706     0.000450     NO 
 RMS     Force            0.000861     0.000300     NO 
 Maximum Displacement     0.000845     0.001800     YES
 RMS     Displacement     0.000565     0.001200     YES
 Predicted change in Energy=-9.345511D-07
 GradGradGradGradGradGradGradGradGradGradGradGradGradGradGradGradGradGrad

                          Input orientation:                          
 ---------------------------------------------------------------------
 Center     Atomic      Atomic             Coordinates (Angstroms)
 Number     Number       Type             X           Y           Z
 ---------------------------------------------------------------------
      1          1           0        0.000000    0.000000    0.009550
      2          6           0        0.000000    0.000000    1.103622
      3          8           0        0.000000    0.000000    2.186827
 ---------------------------------------------------------------------
                    Distance matrix (angstroms):
                    1          2          3
     1  H    0.000000
     2  C    1.094072   0.000000
     3  O    2.177277   1.083205   0.000000
 Stoichiometry    CHO(1+)
 Framework group  C*V[C*(HCO)]
 Deg. of freedom     2
 Full point group                 C*V     NOp   4
 Largest Abelian subgroup         C2V     NOp   4
 Largest concise Abelian subgroup C1      NOp   1
                         Standard orientation:                         
 ---------------------------------------------------------------------
 Center     Atomic      Atomic             Coordinates (Angstroms)
 Number     Number       Type             X           Y           Z
 ---------------------------------------------------------------------
      1          1           0        0.000000    0.000000   -1.598843
      2          6           0        0.000000    0.000000   -0.504771
      3          8           0        0.000000    0.000000    0.578434
 ---------------------------------------------------------------------
 Rotational constants (GHZ):      0.0000000     46.3690589     46.3690589
 Standard basis: CC-pVDZ (5D, 7F)
 There are    19 symmetry adapted cartesian basis functions of A1  symmetry.
 There are     2 symmetry adapted cartesian basis functions of A2  symmetry.
 There are     7 symmetry adapted cartesian basis functions of B1  symmetry.
 There are     7 symmetry adapted cartesian basis functions of B2  symmetry.
 There are    17 symmetry adapted basis functions of A1  symmetry.
 There are     2 symmetry adapted basis functions of A2  symmetry.
 There are     7 symmetry adapted basis functions of B1  symmetry.
 There are     7 symmetry adapted basis functions of B2  symmetry.
    33 basis functions,    73 primitive gaussians,    35 cartesian basis functions
     7 alpha electrons        7 beta electrons
       nuclear repulsion energy        28.2958203543 Hartrees.
 NAtoms=    3 NActive=    3 NUniq=    3 SFac= 1.00D+00 NAtFMM=   60 NAOKFM=F Big=F
 Integral buffers will be    131072 words long.
 Raffenetti 1 integral format.
 Two-electron integral symmetry is turned on.
 One-electron integrals computed using PRISM.
 NBasis=    33 RedAO= T EigKep=  3.58D-02  NBF=    17     2     7     7
 NBsUse=    33 1.00D-06 EigRej= -1.00D+00 NBFU=    17     2     7     7
 Initial guess from the checkpoint file:  "/home/andres/scr/Gau-16307.chk"
 B after Tr=     0.000000    0.000000    0.000000
         Rot=    1.000000    0.000000    0.000000    0.000000 Ang=   0.00 deg.
 Initial guess orbital symmetries:
       Occupied  (SG) (SG) (SG) (SG) (SG) (PI) (PI)
       Virtual   (SG) (SG) (SG) (SG) (SG) (DLTA) (SG) (DLTA) (SG)
                 (SG) (SG) (SG) (DLTA) (DLTA) (PI) (PI) (PI) (PI)
                 (PI) (PI) (PI) (PI) (PI) (PI) (PI) (PI)
 Keep R1 ints in memory in symmetry-blocked form, NReq=1021736.
 Requested convergence on RMS density matrix=1.00D-08 within 128 cycles.
 Requested convergence on MAX density matrix=1.00D-06.
 Requested convergence on             energy=1.00D-06.
 No special actions if energy rises.
 SCF Done:  E(RHF) =  -112.979840416     A.U. after    7 cycles
            NFock=  7  Conv=0.30D-08     -V/T= 2.0011
 Calling FoFJK, ICntrl=      2127 FMM=F ISym2X=1 I1Cent= 0 IOpClX= 0 NMat=1 NMatS=1 NMatT=0.
 ***** Axes restored to original set *****
 -------------------------------------------------------------------
 Center     Atomic                   Forces (Hartrees/Bohr)
 Number     Number              X              Y              Z
 -------------------------------------------------------------------
      1        1           0.000000000    0.000000000    0.000014582
      2        6           0.000000000    0.000000000   -0.000018919
      3        8           0.000000000    0.000000000    0.000004337
 -------------------------------------------------------------------
 Cartesian Forces:  Max     0.000018919 RMS     0.000008092

 GradGradGradGradGradGradGradGradGradGradGradGradGradGradGradGradGradGrad
 Berny optimization.
 Using GEDIIS/GDIIS optimizer.
 Internal  Forces:  Max     0.000014582 RMS     0.000007607
 Search for a local minimum.
 Step number   3 out of a maximum of   20
 All quantities printed in internal units (Hartrees-Bohrs-Radians)
 Mixed Optimization -- En-DIIS/RFO-DIIS
 Swapping is turned off.
 Update second derivatives using D2CorX and points    1    3
 DE= -8.87D-07 DEPred=-9.35D-07 R= 9.49D-01
 Trust test= 9.49D-01 RLast= 1.14D-03 DXMaxT set to 3.00D-01
 The second derivative matrix:
                          R1        R2        A1        A2
           R1           0.33619
           R2          -0.00647   1.71858
           A1           0.00000   0.00000   0.05660
           A2           0.00000   0.00000   0.00000   0.05660
 ITU=  0  1  0
     Eigenvalues ---    0.05660   0.05660   0.33616   1.71861
 En-DIIS/RFO-DIIS IScMMF=        0 using points:     3    2
 RFO step:  Lambda= 0.00000000D+00.
 DidBck=F Rises=F RFO-DIIS coefs:    1.00305   -0.00305
 Iteration  1 RMS(Cart)=  0.00001714 RMS(Int)=  0.00000000
 Iteration  2 RMS(Cart)=  0.00000000 RMS(Int)=  0.00000000
 ClnCor:  largest displacement from symmetrization is 1.26D-10 for atom     2.
 Variable       Old X    -DE/DX   Delta X   Delta X   Delta X     New X
                                 (Linear)    (Quad)   (Total)
    R1        2.06750  -0.00001   0.00000  -0.00004  -0.00004   2.06745
    R2        2.04696   0.00000   0.00000   0.00001   0.00000   2.04696
    A1        3.14159   0.00000   0.00000   0.00000   0.00000   3.14159
    A2        3.14159   0.00000   0.00000   0.00000   0.00000   3.14159
         Item               Value     Threshold  Converged?
 Maximum Force            0.000015     0.000450     YES
 RMS     Force            0.000008     0.000300     YES
 Maximum Displacement     0.000028     0.001800     YES
 RMS     Displacement     0.000017     0.001200     YES
 Predicted change in Energy=-3.209930D-10
 Optimization completed.
    -- Stationary point found.
                           ----------------------------
                           !   Optimized Parameters   !
                           ! (Angstroms and Degrees)  !
 --------------------------                            --------------------------
 ! Name  Definition              Value          Derivative Info.                !
 --------------------------------------------------------------------------------
 ! R1    R(1,2)                  1.0941         -DE/DX =    0.0                 !
 ! R2    R(2,3)                  1.0832         -DE/DX =    0.0                 !
 ! A1    L(1,2,3,-1,-1)        180.0            -DE/DX =    0.0                 !
 ! A2    L(1,2,3,-2,-2)        180.0            -DE/DX =    0.0                 !
 --------------------------------------------------------------------------------
 GradGradGradGradGradGradGradGradGradGradGradGradGradGradGradGradGradGrad

                          Input orientation:                          
 ---------------------------------------------------------------------
 Center     Atomic      Atomic             Coordinates (Angstroms)
 Number     Number       Type             X           Y           Z
 ---------------------------------------------------------------------
      1          1           0        0.000000    0.000000    0.009550
      2          6           0        0.000000    0.000000    1.103622
      3          8           0        0.000000    0.000000    2.186827
 ---------------------------------------------------------------------
                    Distance matrix (angstroms):
                    1          2          3
     1  H    0.000000
     2  C    1.094072   0.000000
     3  O    2.177277   1.083205   0.000000
 Stoichiometry    CHO(1+)
 Framework group  C*V[C*(HCO)]
 Deg. of freedom     2
 Full point group                 C*V     NOp   4
 Largest Abelian subgroup         C2V     NOp   4
 Largest concise Abelian subgroup C1      NOp   1
                         Standard orientation:                         
 ---------------------------------------------------------------------
 Center     Atomic      Atomic             Coordinates (Angstroms)
 Number     Number       Type             X           Y           Z
 ---------------------------------------------------------------------
      1          1           0        0.000000    0.000000   -1.598843
      2          6           0        0.000000    0.000000   -0.504771
      3          8           0        0.000000    0.000000    0.578434
 ---------------------------------------------------------------------
 Rotational constants (GHZ):      0.0000000     46.3690589     46.3690589

 **********************************************************************

            Population analysis using the SCF density.

 **********************************************************************

 Orbital symmetries:
       Occupied  (SG) (SG) (SG) (SG) (SG) (PI) (PI)
       Virtual   (PI) (PI) (SG) (SG) (PI) (PI) (SG) (SG) (SG) (PI)
                 (PI) (SG) (DLTA) (DLTA) (PI) (PI) (SG) (PI) (PI)
                 (SG) (DLTA) (DLTA) (SG) (PI) (PI) (SG)
 The electronic state is 1-SG.
 Alpha  occ. eigenvalues --  -21.04237 -11.76933  -1.90410  -1.19762  -1.09629
 Alpha  occ. eigenvalues --   -0.99376  -0.99376
 Alpha virt. eigenvalues --   -0.18206  -0.18206  -0.09573   0.04625   0.32700
 Alpha virt. eigenvalues --    0.32700   0.40694   0.58415   0.74773   0.90858
 Alpha virt. eigenvalues --    0.90858   0.95311   0.96670   0.96670   0.99130
 Alpha virt. eigenvalues --    0.99130   1.69202   1.70809   1.70809   2.04202
 Alpha virt. eigenvalues --    2.61264   2.61264   3.08025   3.25586   3.25586
 Alpha virt. eigenvalues --    3.60795
          Condensed to atoms (all electrons):
               1          2          3
     1  H    0.329537   0.361745  -0.009272
     2  C    0.361745   4.267770   0.853047
     3  O   -0.009272   0.853047   6.991653
 Mulliken charges:
               1
     1  H    0.317990
     2  C    0.517438
     3  O    0.164572
 Sum of Mulliken charges =   1.00000
 Mulliken charges with hydrogens summed into heavy atoms:
               1
     2  C    0.835428
     3  O    0.164572
 Electronic spatial extent (au):  <R**2>=             39.8479
 Charge=              1.0000 electrons
 Dipole moment (field-independent basis, Debye):
    X=              0.0000    Y=              0.0000    Z=             -4.1303  Tot=              4.1303
 Quadrupole moment (field-independent basis, Debye-Ang):
   XX=             -8.7622   YY=             -8.7622   ZZ=             -3.5944
   XY=              0.0000   XZ=              0.0000   YZ=              0.0000
 Traceless Quadrupole moment (field-independent basis, Debye-Ang):
   XX=             -1.7226   YY=             -1.7226   ZZ=              3.4452
   XY=              0.0000   XZ=              0.0000   YZ=              0.0000
 Octapole moment (field-independent basis, Debye-Ang**2):
  XXX=              0.0000  YYY=              0.0000  ZZZ=             -8.1664  XYY=              0.0000
  XXY=              0.0000  XXZ=             -0.1328  XZZ=              0.0000  YZZ=              0.0000
  YYZ=             -0.1328  XYZ=              0.0000
 Hexadecapole moment (field-independent basis, Debye-Ang**3):
 XXXX=             -6.1645 YYYY=             -6.1645 ZZZZ=            -13.4973 XXXY=              0.0000
 XXXZ=              0.0000 YYYX=              0.0000 YYYZ=              0.0000 ZZZX=              0.0000
 ZZZY=              0.0000 XXYY=             -2.0548 XXZZ=             -5.6267 YYZZ=             -5.6267
 XXYZ=              0.0000 YYXZ=              0.0000 ZZXY=              0.0000
 N-N= 2.829582035431D+01 E-N=-3.174175119889D+02  KE= 1.128606312843D+02
 Symmetry A1   KE= 1.047354751509D+02
 Symmetry A2   KE=-3.783561739932D-51
 Symmetry B1   KE= 4.062578066673D+00
 Symmetry B2   KE= 4.062578066673D+00
 1\1\GINC-ANDRES-INSPIRON-14-3467\FOpt\RHF\CC-pVDZ\C1H1O1(1+)\ANDRES\22
 -Apr-2021\0\\# hf/cc-pVDZ opt\\opt hco+\\1,1\H,0.,0.,0.0095502621\C,0.
 ,0.,1.1036223199\O,0.,0.,2.1868274181\\Version=EM64L-G09RevD.01\State=
 1-SG\HF=-112.9798404\RMSD=3.026e-09\RMSF=8.092e-06\Dipole=0.,0.,-1.625
 0021\Quadrupole=-1.2806931,-1.2806931,2.5613861,0.,0.,0.\PG=C*V [C*(H1
 C1O1)]\\@


 What some people mistake for the high cost
 of living is really the cost of living high.
                              -- Doug Larson
 Job cpu time:       0 days  0 hours  0 minutes  2.5 seconds.
 File lengths (MBytes):  RWF=      5 Int=      0 D2E=      0 Chk=      1 Scr=      1
 Normal termination of Gaussian 09 at Thu Apr 22 19:18:51 2021.
