4
Point  1  Energy=  -0.11376737851459D+03
C 0.003271 -0.002855 0.024893
O 0.012577 0.009804 1.235442
H 0.751580 -0.008228 -0.786995
H -1.091236 0.001279 0.682590
4
Point  2  Energy=  -0.11376842283808D+03
C 0.004451 -0.006670 -0.636288
O 0.018907 0.005966 0.571072
H 0.747959 -0.012130 -1.454406
H -1.101017 -0.003128 -0.032748
4
Point  3  Energy=  -0.11377128033548D+03
C 0.002401 -0.006618 -0.632455
O 0.021828 0.005975 0.571503
H 0.740362 -0.012276 -1.456869
H -1.115374 -0.003747 -0.082772
4
Point  4  Energy=  -0.11377541007844D+03
C 0.000243 -0.006579 -0.628720
O 0.024802 0.005986 0.571956
H 0.733078 -0.012350 -1.458419
H -1.129613 -0.004325 -0.132897
4
Point  5  Energy=  -0.11378030525431D+03
C -0.002037 -0.006540 -0.625033
O 0.027789 0.005998 0.572433
H 0.725841 -0.012415 -1.459440
H -1.142636 -0.004901 -0.183340
4
Point  6  Energy=  -0.11378558866689D+03
C -0.004497 -0.006503 -0.621428
O 0.030792 0.006010 0.572960
H 0.718759 -0.012471 -1.459876
H -1.153914 -0.005475 -0.234190
4
Point  7  Energy=  -0.11379099279565D+03
C -0.007180 -0.006469 -0.617953
O 0.033816 0.006023 0.573568
H 0.711977 -0.012519 -1.459691
H -1.163183 -0.006047 -0.285428
4
Point  8  Energy=  -0.11379632363872D+03
C -0.010118 -0.006437 -0.614656
O 0.036873 0.006037 0.574285
H 0.705667 -0.012558 -1.458824
H -1.170408 -0.006618 -0.336966
4
Point  9  Energy=  -0.11380144046497D+03
C -0.013344 -0.006408 -0.611582
O 0.039976 0.006053 0.575135
H 0.700039 -0.012588 -1.457199
H -1.175645 -0.007186 -0.388686
4
Point  10  Energy=  -0.11380624479852D+03
C -0.016888 -0.006382 -0.608773
O 0.043141 0.006071 0.576130
H 0.695345 -0.012606 -1.454715
H -1.178991 -0.007749 -0.440449
4
Point  11  Energy=  -0.11381067202162D+03
C -0.020786 -0.006361 -0.606260
O 0.046384 0.006090 0.577277
H 0.691871 -0.012611 -1.451236
H -1.180576 -0.008308 -0.492086
4
Point  12  Energy=  -0.11381468393649D+03
C -0.025070 -0.006344 -0.604066
O 0.049719 0.006112 0.578568
H 0.689930 -0.012600 -1.446578
H -1.180560 -0.008859 -0.543393
4
Point  13  Energy=  -0.11381826247411D+03
C -0.029772 -0.006332 -0.602201
O 0.053160 0.006134 0.579979
H 0.689851 -0.012569 -1.440493
H -1.179128 -0.009402 -0.594120
4
Point  14  Energy=  -0.11382140487565D+03
C -0.034915 -0.006324 -0.600666
O 0.056718 0.006158 0.581471
H 0.691958 -0.012513 -1.432668
H -1.176478 -0.009932 -0.643962
4
Point  15  Energy=  -0.11382411984555D+03
C -0.040513 -0.006321 -0.599446
O 0.060397 0.006183 0.582986
H 0.696542 -0.012429 -1.422726
H -1.172821 -0.010447 -0.692549
4
Point  16  Energy=  -0.11382642440611D+03
C -0.046558 -0.006322 -0.598512
O 0.064193 0.006208 0.584448
H 0.703809 -0.012309 -1.410261
H -1.168378 -0.010942 -0.739446
4
Point  17  Energy=  -0.11382834059749D+03
C -0.053016 -0.006327 -0.597821
O 0.068091 0.006231 0.585772
H 0.713824 -0.012150 -1.394897
H -1.163377 -0.011413 -0.784194
4
Point  18  Energy=  -0.11382989158027D+03
C -0.059819 -0.006336 -0.597312
O 0.072061 0.006253 0.586867
H 0.726445 -0.011949 -1.376369
H -1.158035 -0.011855 -0.826380
4
Point  19  Energy=  -0.11383109745829D+03
C -0.066875 -0.006347 -0.596909
O 0.076071 0.006271 0.587655
H 0.741282 -0.011704 -1.354611
H -1.152538 -0.012265 -0.865757
4
Point  20  Energy=  -0.11383197198923D+03
C -0.074078 -0.006360 -0.596522
O 0.080088 0.006286 0.588077
H 0.757723 -0.011418 -1.329812
H -1.146993 -0.012643 -0.902361
4
Point  21  Energy=  -0.11383252157955D+03
C -0.081344 -0.006373 -0.596055
O 0.084101 0.006298 0.588104
H 0.774983 -0.011098 -1.302439
H -1.141392 -0.012992 -0.936568
4
Point  22  Energy=  -0.11383274694291D+03
C -0.088717 -0.006387 -0.595440
O 0.088230 0.006305 0.587694
H 0.791963 -0.010750 -1.273419
H -1.135717 -0.013317 -0.968972
4
Point  23  Energy=  -0.11376848046909D+03
C 0.008881 -0.006740 -0.643743
O 0.013038 0.005941 0.569995
H 0.761992 -0.012027 -1.449402
H -1.074664 -0.002014 0.068112
4
Point  24  Energy=  -0.11377164327018D+03
C 0.011241 -0.006761 -0.647357
O 0.010132 0.005926 0.569337
H 0.768625 -0.012047 -1.446831
H -1.063268 -0.001506 0.119036
4
Point  25  Energy=  -0.11377641104495D+03
C 0.013597 -0.006789 -0.650967
O 0.007329 0.005912 0.568616
H 0.775770 -0.012021 -1.443709
H -1.053956 -0.000972 0.170390
4
Point  26  Energy=  -0.11378220357423D+03
C 0.015968 -0.006816 -0.654472
O 0.004600 0.005896 0.567781
H 0.783210 -0.011987 -1.440354
H -1.046296 -0.000435 0.222064
4
Point  27  Energy=  -0.11378852331381D+03
C 0.018337 -0.006842 -0.657819
O 0.001936 0.005880 0.566797
H 0.790940 -0.011949 -1.436771
H -1.039947 0.000101 0.273989
4
Point  28  Energy=  -0.11379499588644D+03
C 0.020679 -0.006866 -0.660985
O -0.000664 0.005861 0.565647
H 0.798985 -0.011907 -1.432911
H -1.034613 0.000637 0.326099
4
Point  29  Energy=  -0.11380134094727D+03
C 0.022969 -0.006888 -0.663965
O -0.003192 0.005841 0.564324
H 0.807419 -0.011859 -1.428668
H -1.030177 0.001171 0.378350
4
Point  30  Energy=  -0.11380735099433D+03
C 0.025175 -0.006909 -0.666756
O -0.005639 0.005820 0.562820
H 0.816336 -0.011806 -1.423885
H -1.026518 0.001703 0.430683
4
Point  31  Energy=  -0.11381288142878D+03
C 0.027261 -0.006927 -0.669354
O -0.008004 0.005797 0.561124
H 0.825838 -0.011746 -1.418363
H -1.023326 0.002232 0.483015
4
Point  32  Energy=  -0.11381784053935D+03
C 0.029185 -0.006944 -0.671751
O -0.010294 0.005772 0.559223
H 0.836033 -0.011675 -1.411857
H -1.020086 0.002758 0.535228
4
Point  33  Energy=  -0.11382217842907D+03
C 0.030903 -0.006959 -0.673944
O -0.012522 0.005744 0.557104
H 0.847042 -0.011591 -1.404070
H -1.016185 0.003280 0.587158
4
Point  34  Energy=  -0.11382587769561D+03
C 0.032363 -0.006972 -0.675932
O -0.014696 0.005715 0.554761
H 0.858998 -0.011490 -1.394648
H -1.011041 0.003797 0.638574
4
Point  35  Energy=  -0.11382894592369D+03
C 0.033509 -0.006983 -0.677719
O -0.016810 0.005684 0.552191
H 0.872042 -0.011369 -1.383180
H -1.004192 0.004306 0.689156
4
Point  36  Energy=  -0.11383140923683D+03
C 0.034278 -0.006994 -0.679324
O -0.018843 0.005651 0.549405
H 0.886318 -0.011221 -1.369211
H -0.995363 0.004805 0.738482
4
Point  37  Energy=  -0.11383330565775D+03
C 0.034606 -0.007003 -0.680777
O -0.020760 0.005617 0.546432
H 0.901939 -0.011043 -1.352278
H -0.984475 0.005287 0.786040
4
Point  38  Energy=  -0.11383467804599D+03
C 0.034443 -0.007013 -0.682133
O -0.022517 0.005582 0.543324
H 0.918954 -0.010829 -1.331969
H -0.971657 0.005746 0.831256
4
Point  39  Energy=  -0.11383556689581D+03
C 0.033784 -0.007024 -0.683464
O -0.024081 0.005547 0.540160
H 0.937303 -0.010577 -1.308011
H -0.957229 0.006176 0.873578
4
Point  40  Energy=  -0.11383600385867D+03
C 0.032754 -0.007036 -0.684827
O -0.025485 0.005514 0.537044
H 0.956898 -0.010285 -1.280230
H -0.941760 0.006569 0.912512
